3
Step: 0 	 E =  0.39685690695535797
18 0.0 0.0 0.0
18 0.0 0.0 0.3
18 0.1 0.2 -0.3
3
Step: 1 	 E =  0.3716442019029695
18 -2e-06 -3e-06 -0.003611
18 1e-06 2e-06 0.30361
18 0.100001 0.200001 -0.299999
3
Step: 2 	 E =  0.36475408618626726
18 -1.4e-05 -2.8e-05 -0.012212
18 4e-06 7e-06 0.312231
18 0.10001 0.20002 -0.300019
3
Step: 3 	 E =  0.37129383898929186
18 -6.1e-05 -0.000122 -0.022775
18 8e-06 1.7e-05 0.322903
18 0.100053 0.200105 -0.300128
3
Step: 4 	 E =  0.3752789561577074
18 -0.000187 -0.000373 -0.033725
18 1.4e-05 2.9e-05 0.334171
18 0.100172 0.200344 -0.300446
3
Step: 5 	 E =  0.377005875634955
18 -0.000456 -0.000913 -0.044372
18 2.2e-05 4.4e-05 0.34551
18 0.100434 0.200869 -0.301138
3
Step: 6 	 E =  0.37794122567128224
18 -0.000954 -0.001908 -0.054357
18 3e-05 6.1e-05 0.35676
18 0.100924 0.201847 -0.302404
3
Step: 7 	 E =  0.37848103297931707
18 -0.001766 -0.003533 -0.063456
18 4e-05 7.9e-05 0.367886
18 0.101727 0.203454 -0.30443
3
Step: 8 	 E =  0.37849407152823883
18 -0.002955 -0.005909 -0.071567
18 4.9e-05 9.8e-05 0.378893
18 0.102906 0.205811 -0.307326
3
Step: 9 	 E =  0.37807078579354975
18 -0.004527 -0.009055 -0.078722
18 5.9e-05 0.000118 0.389797
18 0.104468 0.208937 -0.311076
3
Step: 10 	 E =  0.37761574307977075
18 -0.006437 -0.012874 -0.085073
18 6.8e-05 0.000137 0.400614
18 0.106369 0.212738 -0.315541
3
Step: 11 	 E =  0.3773968742815581
18 -0.008603 -0.017207 -0.090831
18 7.7e-05 0.000155 0.411359
18 0.108526 0.217052 -0.320528
3
Step: 12 	 E =  0.3773985808039916
18 -0.010939 -0.021878 -0.096198
18 8.6e-05 0.000172 0.422044
18 0.110853 0.221705 -0.325846
3
Step: 13 	 E =  0.37750137618773816
18 -0.01337 -0.026741 -0.101335
18 9.4e-05 0.000188 0.432679
18 0.113276 0.226552 -0.331344
3
Step: 14 	 E =  0.3776176650590364
18 -0.015843 -0.031686 -0.106357
18 0.000102 0.000203 0.443273
18 0.115741 0.231483 -0.336916
3
Step: 15 	 E =  0.3777113518001021
18 -0.01832 -0.03664 -0.111337
18 0.000108 0.000217 0.453832
18 0.118211 0.236423 -0.342496
3
Step: 16 	 E =  0.37777629756434283
18 -0.020778 -0.041555 -0.116321
18 0.000115 0.000229 0.464363
18 0.120663 0.241326 -0.348042
3
Step: 17 	 E =  0.37781748869764253
18 -0.023202 -0.046404 -0.121335
18 0.00012 0.00024 0.474869
18 0.123082 0.246164 -0.353534
3
Step: 18 	 E =  0.37784189113298744
18 -0.025586 -0.051173 -0.126393
18 0.000125 0.00025 0.485355
18 0.125461 0.250922 -0.358962
3
Step: 19 	 E =  0.3778553344132262
18 -0.027927 -0.055853 -0.131502
18 0.00013 0.000259 0.495824
18 0.127797 0.255594 -0.364322
3
Step: 20 	 E =  0.3778619643369237
18 -0.030222 -0.060445 -0.136663
18 0.000134 0.000268 0.506278
18 0.130089 0.260177 -0.369615
3
Step: 21 	 E =  0.37786451309590086
18 -0.032474 -0.064949 -0.141876
18 0.000138 0.000275 0.516721
18 0.132337 0.264674 -0.374844
3
Step: 22 	 E =  0.37786470749456247
18 -0.034684 -0.069369 -0.147139
18 0.000141 0.000282 0.527153
18 0.134543 0.269087 -0.380014
3
Step: 23 	 E =  0.3778636104098475
18 -0.036854 -0.073709 -0.152447
18 0.000144 0.000288 0.537576
18 0.13671 0.273421 -0.385129
3
Step: 24 	 E =  0.3778618628215332
18 -0.038987 -0.077974 -0.157798
18 0.000147 0.000294 0.547992
18 0.13884 0.277681 -0.390194
3
Step: 25 	 E =  0.3778598433984297
18 -0.041085 -0.08217 -0.163188
18 0.000149 0.000299 0.558401
18 0.140936 0.281871 -0.395213
3
Step: 26 	 E =  0.3778577699691258
18 -0.043151 -0.086301 -0.168614
18 0.000152 0.000303 0.568804
18 0.142999 0.285998 -0.40019
3
Step: 27 	 E =  0.37785576280396066
18 -0.045186 -0.090372 -0.174073
18 0.000154 0.000308 0.579203
18 0.145032 0.290065 -0.40513
3
Step: 28 	 E =  0.3778538836586757
18 -0.047194 -0.094388 -0.179561
18 0.000156 0.000311 0.589598
18 0.147038 0.294076 -0.410037
3
Step: 29 	 E =  0.3778521597059706
18 -0.049176 -0.098353 -0.185077
18 0.000158 0.000315 0.599989
18 0.149019 0.298037 -0.414913
3
Step: 30 	 E =  0.37785059812962835
18 -0.051135 -0.10227 -0.190616
18 0.000159 0.000319 0.610377
18 0.150976 0.301951 -0.419761
3
Step: 31 	 E =  0.37784919497442143
18 -0.053072 -0.106144 -0.196178
18 0.000161 0.000322 0.620763
18 0.152911 0.305822 -0.424585
3
Step: 32 	 E =  0.37784794046986175
18 -0.054989 -0.109978 -0.20176
18 0.000162 0.000325 0.631146
18 0.154827 0.309653 -0.429386
3
Step: 33 	 E =  0.3778468221926962
18 -0.056887 -0.113775 -0.20736
18 0.000164 0.000328 0.641527
18 0.156724 0.313447 -0.434167
3
Step: 34 	 E =  0.3778458269075674
18 -0.058769 -0.117538 -0.212976
18 0.000165 0.00033 0.651906
18 0.158604 0.317207 -0.43893
3
Step: 35 	 E =  0.3778449416023917
18 -0.060634 -0.121269 -0.218607
18 0.000166 0.000333 0.662283
18 0.160468 0.320936 -0.443676
3
Step: 36 	 E =  0.3778441540365591
18 -0.062486 -0.124971 -0.224252
18 0.000168 0.000335 0.67266
18 0.162318 0.324636 -0.448408
3
Step: 37 	 E =  0.377843452997871
18 -0.064323 -0.128646 -0.229909
18 0.000169 0.000338 0.683034
18 0.164154 0.328309 -0.453126
3
Step: 38 	 E =  0.3778428283887191
18 -0.066148 -0.132297 -0.235577
18 0.00017 0.00034 0.693408
18 0.165978 0.331957 -0.457832
3
Step: 39 	 E =  0.3778422712153749
18 -0.067962 -0.135925 -0.241255
18 0.000171 0.000342 0.703781
18 0.167791 0.335582 -0.462527
3
Step: 40 	 E =  0.3778417735253569
18 -0.069765 -0.139531 -0.246942
18 0.000172 0.000344 0.714153
18 0.169593 0.339187 -0.467211
3
Step: 41 	 E =  0.37784132831993794
18 -0.071559 -0.143118 -0.252637
18 0.000173 0.000346 0.724524
18 0.171386 0.342771 -0.471887
3
Step: 42 	 E =  0.37784092945776887
18 -0.073343 -0.146686 -0.258341
18 0.000174 0.000348 0.734895
18 0.173169 0.346338 -0.476554
3
Step: 43 	 E =  0.37784057155875406
18 -0.075119 -0.150238 -0.264051
18 0.000175 0.00035 0.745265
18 0.174944 0.349887 -0.481214
3
Step: 44 	 E =  0.37784024991312565
18 -0.076887 -0.153773 -0.269767
18 0.000176 0.000352 0.755634
18 0.176711 0.353421 -0.485867
3
Step: 45 	 E =  0.3778399603981284
18 -0.078647 -0.157295 -0.275489
18 0.000177 0.000354 0.766003
18 0.17847 0.356941 -0.490513
3
Step: 46 	 E =  0.3778396994032167
18 -0.080401 -0.160803 -0.281217
18 0.000178 0.000356 0.776371
18 0.180223 0.360447 -0.495154
3
Step: 47 	 E =  0.37783946376380073
18 -0.082149 -0.164298 -0.286949
18 0.000179 0.000358 0.786739
18 0.18197 0.36394 -0.49979
3
Step: 48 	 E =  0.3778392507031008
18 -0.083891 -0.167781 -0.292686
18 0.00018 0.000359 0.797107
18 0.183711 0.367422 -0.504421
3
Step: 49 	 E =  0.3778390577814379
18 -0.085627 -0.171254 -0.298426
18 0.000181 0.000361 0.807474
18 0.185447 0.370893 -0.509048
3
Step: 50 	 E =  0.3778388828521946
18 -0.087358 -0.174717 -0.30417
18 0.000181 0.000363 0.817841
18 0.187177 0.374354 -0.51367
3
Step: 51 	 E =  0.37783872402367275
18 -0.089085 -0.17817 -0.309918
18 0.000182 0.000365 0.828208
18 0.188903 0.377806 -0.518289
3
Step: 52 	 E =  0.37783857962611395
18 -0.090807 -0.181615 -0.315669
18 0.000183 0.000366 0.838574
18 0.190624 0.381248 -0.522905
3
Step: 53 	 E =  0.3778384481832058
18 -0.092525 -0.185051 -0.321422
18 0.000184 0.000368 0.84894
18 0.192341 0.384683 -0.527518
3
Step: 54 	 E =  0.37783832838746867
18 -0.09424 -0.188479 -0.327178
18 0.000185 0.00037 0.859306
18 0.194055 0.38811 -0.532128
3
Step: 55 	 E =  0.3778382190789914
18 -0.09595 -0.191901 -0.332937
18 0.000186 0.000371 0.869672
18 0.195765 0.39153 -0.536735
3
Step: 56 	 E =  0.3778381192270447
18 -0.097658 -0.195316 -0.338698
18 0.000186 0.000373 0.880038
18 0.197472 0.394943 -0.54134
3
Step: 57 	 E =  0.3778380279141698
18 -0.099362 -0.198724 -0.34446
18 0.000187 0.000374 0.890403
18 0.199175 0.39835 -0.545943
3
Step: 58 	 E =  0.3778379443223945
18 -0.101064 -0.202127 -0.350225
18 0.000188 0.000376 0.900769
18 0.200876 0.401751 -0.550544
3
Step: 59 	 E =  0.377837867721274
18 -0.102762 -0.205525 -0.355991
18 0.000189 0.000378 0.911134
18 0.202574 0.405147 -0.555143
3
Step: 60 	 E =  0.377837797457502
18 -0.104458 -0.208917 -0.361759
18 0.00019 0.000379 0.921499
18 0.204269 0.408538 -0.55974
3
Step: 61 	 E =  0.377837732945871
18 -0.106152 -0.212305 -0.367528
18 0.00019 0.000381 0.931864
18 0.205962 0.411924 -0.564336
3
Step: 62 	 E =  0.3778376736613937
18 -0.107844 -0.215688 -0.373299
18 0.000191 0.000382 0.942229
18 0.207653 0.415305 -0.56893
3
Step: 63 	 E =  0.37783761913242603
18 -0.109533 -0.219066 -0.379071
18 0.000192 0.000384 0.952594
18 0.209341 0.418682 -0.573523
3
Step: 64 	 E =  0.3778375689346533
18 -0.111221 -0.222441 -0.384843
18 0.000193 0.000386 0.962958
18 0.211028 0.422056 -0.578115
3
Step: 65 	 E =  0.3778375226858222
18 -0.112906 -0.225813 -0.390617
18 0.000194 0.000387 0.973323
18 0.212713 0.425426 -0.582706
3
Step: 66 	 E =  0.3778374800411196
18 -0.11459 -0.22918 -0.396392
18 0.000194 0.000389 0.983688
18 0.214396 0.428792 -0.587295
3
Step: 67 	 E =  0.37783744068910935
18 -0.116272 -0.232545 -0.402168
18 0.000195 0.00039 0.994052
18 0.216077 0.432155 -0.591884
3
Step: 68 	 E =  0.37783740434815605
18 -0.117953 -0.235906 -0.407945
18 0.000196 0.000392 1.004417
18 0.217757 0.435515 -0.596472
3
Step: 69 	 E =  0.37783737076327095
18 -0.119633 -0.239265 -0.413722
18 0.000197 0.000393 1.014781
18 0.219436 0.438872 -0.601059
3
Step: 70 	 E =  0.37783733970332567
18 -0.12131 -0.242621 -0.4195
18 0.000197 0.000395 1.025145
18 0.221113 0.442226 -0.605645
3
Step: 71 	 E =  0.37783731095858686
18 -0.122987 -0.245974 -0.425279
18 0.000198 0.000396 1.03551
18 0.222789 0.445578 -0.610231
3
Step: 72 	 E =  0.3778372843385315
18 -0.124663 -0.249325 -0.431058
18 0.000199 0.000398 1.045874
18 0.224464 0.448927 -0.614815
3
Step: 73 	 E =  0.3778372596699077
18 -0.126337 -0.252674 -0.436838
18 0.0002 0.000399 1.056238
18 0.226137 0.452275 -0.6194
3
Step: 74 	 E =  0.37783723679501163
18 -0.12801 -0.256021 -0.442619
18 0.0002 0.000401 1.066602
18 0.22781 0.45562 -0.623983
3
Step: 75 	 E =  0.37783721557015176
18 -0.129683 -0.259365 -0.4484
18 0.000201 0.000403 1.076966
18 0.229481 0.458963 -0.628567
3
Step: 76 	 E =  0.37783719586428177
18 -0.131354 -0.262708 -0.454181
18 0.000202 0.000404 1.08733
18 0.231152 0.462304 -0.633149
3
Step: 77 	 E =  0.37783717755777874
18 -0.133025 -0.266049 -0.459963
18 0.000203 0.000406 1.097694
18 0.232822 0.465643 -0.637732
3
Step: 78 	 E =  0.377837160541351
18 -0.134694 -0.269388 -0.465745
18 0.000204 0.000407 1.108058
18 0.234491 0.468981 -0.642313
3
Step: 79 	 E =  0.3778371447150609
18 -0.136363 -0.272726 -0.471527
18 0.000204 0.000409 1.118422
18 0.236159 0.472317 -0.646895
3
Step: 80 	 E =  0.3778371299874481
18 -0.138031 -0.276062 -0.47731
18 0.000205 0.00041 1.128786
18 0.237826 0.475652 -0.651476
3
Step: 81 	 E =  0.3778371162747436
18 -0.139699 -0.279397 -0.483093
18 0.000206 0.000412 1.13915
18 0.239493 0.478985 -0.656057
3
Step: 82 	 E =  0.3778371035001626
18 -0.141365 -0.28273 -0.488877
18 0.000207 0.000413 1.149514
18 0.241159 0.482317 -0.660637
3
Step: 83 	 E =  0.3778370915932693
18 -0.143031 -0.286063 -0.494661
18 0.000207 0.000415 1.159878
18 0.242824 0.485648 -0.665218
3
Step: 84 	 E =  0.37783708048940406
18 -0.144697 -0.289394 -0.500445
18 0.000208 0.000416 1.170242
18 0.244489 0.488977 -0.669797
3
Step: 85 	 E =  0.3778370701291667
18 -0.146362 -0.292724 -0.506229
18 0.000209 0.000418 1.180606
18 0.246153 0.492306 -0.674377
3
Step: 86 	 E =  0.3778370604579512
18 -0.148026 -0.296052 -0.512013
18 0.00021 0.000419 1.19097
18 0.247817 0.495633 -0.678957
3
Step: 87 	 E =  0.37783705142552443
18 -0.14969 -0.29938 -0.517798
18 0.00021 0.000421 1.201333
18 0.24948 0.498959 -0.683536
3
Step: 88 	 E =  0.3778370429856452
18 -0.151353 -0.302707 -0.523583
18 0.000211 0.000422 1.211697
18 0.251142 0.502285 -0.688115
3
Step: 89 	 E =  0.37783703509571903
18 -0.153016 -0.306033 -0.529368
18 0.000212 0.000424 1.222061
18 0.252805 0.505609 -0.692694
3
Step: 90 	 E =  0.377837027716487
18 -0.154679 -0.309358 -0.535153
18 0.000213 0.000425 1.232425
18 0.254466 0.508933 -0.697272
3
Step: 91 	 E =  0.37783702081174075
18 -0.156341 -0.312682 -0.540938
18 0.000213 0.000427 1.242789
18 0.256128 0.512255 -0.701851
3
Step: 92 	 E =  0.37783701434806627
18 -0.158003 -0.316006 -0.546723
18 0.000214 0.000428 1.253152
18 0.257789 0.515577 -0.706429
3
Step: 93 	 E =  0.3778370082946098
18 -0.159664 -0.319328 -0.552509
18 0.000215 0.00043 1.263516
18 0.259449 0.518898 -0.711007
3
Step: 94 	 E =  0.37783700262286524
18 -0.161325 -0.32265 -0.558295
18 0.000216 0.000431 1.27388
18 0.261109 0.522219 -0.715585
3
Step: 95 	 E =  0.3778369973064803
18 -0.162986 -0.325972 -0.56408
18 0.000216 0.000433 1.284244
18 0.262769 0.525539 -0.720163
3
Step: 96 	 E =  0.37783699232108087
18 -0.164646 -0.329292 -0.569866
18 0.000217 0.000434 1.294607
18 0.264429 0.528858 -0.724741
3
Step: 97 	 E =  0.37783698764410983
18 -0.166306 -0.332613 -0.575652
18 0.000218 0.000436 1.304971
18 0.266088 0.532177 -0.729319
3
Step: 98 	 E =  0.37783698325468057
18 -0.167966 -0.335932 -0.581439
18 0.000219 0.000437 1.315335
18 0.267747 0.535495 -0.733896
3
Step: 99 	 E =  0.3778369791334436
18 -0.169626 -0.339251 -0.587225
18 0.000219 0.000439 1.325698
18 0.269406 0.538812 -0.738474
3
Step: 100 	 E =  0.3778369752624635
18 -0.171285 -0.34257 -0.593011
18 0.00022 0.00044 1.336062
18 0.271065 0.542129 -0.743051
3
Step: 101 	 E =  0.37783697162510804
18 -0.172944 -0.345888 -0.598797
18 0.000221 0.000442 1.346426
18 0.272723 0.545446 -0.747628
3
Step: 102 	 E =  0.3778369682059452
18 -0.174603 -0.349205 -0.604584
18 0.000222 0.000443 1.356789
18 0.274381 0.548762 -0.752206
3
Step: 103 	 E =  0.37783696499064984
18 -0.176261 -0.352522 -0.61037
18 0.000222 0.000445 1.367153
18 0.276039 0.552077 -0.756783
3
Step: 104 	 E =  0.37783696196591815
18 -0.17792 -0.355839 -0.616157
18 0.000223 0.000447 1.377517
18 0.277696 0.555393 -0.76136
3
Step: 105 	 E =  0.3778369591193889
18 -0.179578 -0.359155 -0.621944
18 0.000224 0.000448 1.38788
18 0.279354 0.558707 -0.765937
3
Step: 106 	 E =  0.377836956439571
18 -0.181236 -0.362471 -0.62773
18 0.000225 0.00045 1.398244
18 0.281011 0.562022 -0.770514
3
Step: 107 	 E =  0.37783695391577793
18 -0.182893 -0.365787 -0.633517
18 0.000226 0.000451 1.408608
18 0.282668 0.565336 -0.775091
3
Step: 108 	 E =  0.37783695153806685
18 -0.184551 -0.369102 -0.639304
18 0.000226 0.000453 1.418971
18 0.284325 0.568649 -0.779667
3
Step: 109 	 E =  0.37783694929718237
18 -0.186208 -0.372417 -0.645091
18 0.000227 0.000454 1.429335
18 0.285981 0.571963 -0.784244
3
Step: 110 	 E =  0.3778369471845056
18 -0.187866 -0.375731 -0.650877
18 0.000228 0.000456 1.439698
18 0.287638 0.575276 -0.788821
3
Step: 111 	 E =  0.3778369451920071
18 -0.189523 -0.379046 -0.656664
18 0.000229 0.000457 1.450062
18 0.289294 0.578588 -0.793398
3
Step: 112 	 E =  0.3778369433122029
18 -0.19118 -0.38236 -0.662451
18 0.000229 0.000459 1.460426
18 0.29095 0.581901 -0.797974
3
Step: 113 	 E =  0.377836941538115
18 -0.192837 -0.385673 -0.668238
18 0.00023 0.00046 1.470789
18 0.292607 0.585213 -0.802551
3
Step: 114 	 E =  0.3778369398632342
18 -0.194493 -0.388987 -0.674025
18 0.000231 0.000462 1.481153
18 0.294262 0.588525 -0.807128
3
Step: 115 	 E =  0.3778369382814863
18 -0.19615 -0.3923 -0.679812
18 0.000232 0.000463 1.491517
18 0.295918 0.591837 -0.811704
3
Step: 116 	 E =  0.3778369367872006
18 -0.197806 -0.395613 -0.6856
18 0.000232 0.000465 1.50188
18 0.297574 0.595148 -0.816281
3
Step: 117 	 E =  0.37783693537508156
18 -0.199463 -0.398925 -0.691387
18 0.000233 0.000466 1.512244
18 0.29923 0.598459 -0.820857
3
Step: 118 	 E =  0.37783693404018104
18 -0.201119 -0.402238 -0.697174
18 0.000234 0.000468 1.522607
18 0.300885 0.60177 -0.825434
3
Step: 119 	 E =  0.37783693277787456
18 -0.202775 -0.40555 -0.702961
18 0.000235 0.000469 1.532971
18 0.30254 0.605081 -0.83001
3
Step: 120 	 E =  0.3778369315838383
18 -0.204431 -0.408862 -0.708748
18 0.000235 0.000471 1.543334
18 0.304196 0.608391 -0.834586
3
Step: 121 	 E =  0.3778369304540277
18 -0.206087 -0.412174 -0.714535
18 0.000236 0.000472 1.553698
18 0.305851 0.611702 -0.839163
3
Step: 122 	 E =  0.3778369293846586
18 -0.207743 -0.415486 -0.720323
18 0.000237 0.000474 1.564062
18 0.307506 0.615012 -0.843739
3
Step: 123 	 E =  0.3778369283721885
18 -0.209399 -0.418797 -0.72611
18 0.000238 0.000475 1.574425
18 0.309161 0.618322 -0.848315
3
Step: 124 	 E =  0.37783692741330066
18 -0.211054 -0.422108 -0.731897
18 0.000238 0.000477 1.584789
18 0.310816 0.621632 -0.852892
3
Step: 125 	 E =  0.377836926504888
18 -0.21271 -0.42542 -0.737684
18 0.000239 0.000478 1.595152
18 0.312471 0.624941 -0.857468
3
Step: 126 	 E =  0.3778369256440389
18 -0.214365 -0.428731 -0.743472
18 0.00024 0.00048 1.605516
18 0.314125 0.628251 -0.862044
3
Step: 127 	 E =  0.37783692482802433
18 -0.216021 -0.432041 -0.749259
18 0.000241 0.000481 1.61588
18 0.31578 0.63156 -0.86662
3
Step: 128 	 E =  0.3778369240542851
18 -0.217676 -0.435352 -0.755046
18 0.000241 0.000483 1.626243
18 0.317435 0.634869 -0.871197
3
Step: 129 	 E =  0.3778369233204206
18 -0.219331 -0.438663 -0.760834
18 0.000242 0.000484 1.636607
18 0.319089 0.638179 -0.875773
3
Step: 130 	 E =  0.3778369226241785
18 -0.220987 -0.441973 -0.766621
18 0.000243 0.000486 1.64697
18 0.320744 0.641487 -0.880349
3
Step: 131 	 E =  0.37783692196344415
18 -0.222642 -0.445284 -0.772409
18 0.000244 0.000487 1.657334
18 0.322398 0.644796 -0.884925
3
Step: 132 	 E =  0.37783692133623253
18 -0.224297 -0.448594 -0.778196
18 0.000244 0.000489 1.667697
18 0.324052 0.648105 -0.889501
3
Step: 133 	 E =  0.37783692074067854
18 -0.225952 -0.451904 -0.783983
18 0.000245 0.00049 1.678061
18 0.325707 0.651414 -0.894078
3
Step: 134 	 E =  0.3778369201750303
18 -0.227607 -0.455214 -0.789771
18 0.000246 0.000492 1.688424
18 0.327361 0.654722 -0.898654
3
Step: 135 	 E =  0.377836919637641
18 -0.229262 -0.458524 -0.795558
18 0.000247 0.000493 1.698788
18 0.329015 0.65803 -0.90323
3
Step: 136 	 E =  0.3778369191269621
18 -0.230917 -0.461833 -0.801346
18 0.000247 0.000495 1.709152
18 0.330669 0.661339 -0.907806
3
Step: 137 	 E =  0.3778369186415379
18 -0.232572 -0.465143 -0.807133
18 0.000248 0.000496 1.719515
18 0.332323 0.664647 -0.912382
3
Step: 138 	 E =  0.37783691817999804
18 -0.234226 -0.468453 -0.81292
18 0.000249 0.000498 1.729879
18 0.333977 0.667955 -0.916958
3
Step: 139 	 E =  0.3778369177410536
18 -0.235881 -0.471762 -0.818708
18 0.00025 0.000499 1.740242
18 0.335631 0.671263 -0.921534
3
Step: 140 	 E =  0.3778369173234909
18 -0.237536 -0.475072 -0.824495
18 0.00025 0.000501 1.750606
18 0.337285 0.674571 -0.92611
3
Step: 141 	 E =  0.3778369169261673
18 -0.23919 -0.478381 -0.830283
18 0.000251 0.000502 1.760969
18 0.338939 0.677879 -0.930686
3
Step: 142 	 E =  0.3778369165480063
18 -0.240845 -0.48169 -0.83607
18 0.000252 0.000504 1.771333
18 0.340593 0.681186 -0.935263
3
Step: 143 	 E =  0.37783691618799364
18 -0.2425 -0.484999 -0.841858
18 0.000253 0.000505 1.781696
18 0.342247 0.684494 -0.939839
3
Step: 144 	 E =  0.37783691584517365
18 -0.244154 -0.488308 -0.847645
18 0.000253 0.000507 1.79206
18 0.343901 0.687802 -0.944415
3
Step: 145 	 E =  0.3778369155186451
18 -0.245809 -0.491617 -0.853433
18 0.000254 0.000508 1.802424
18 0.345555 0.691109 -0.948991
3
Step: 146 	 E =  0.37783691520755835
18 -0.247463 -0.494926 -0.85922
18 0.000255 0.00051 1.812787
18 0.347208 0.694416 -0.953567
3
Step: 147 	 E =  0.3778369149111116
18 -0.249118 -0.498235 -0.865008
18 0.000256 0.000511 1.823151
18 0.348862 0.697724 -0.958143
3
Step: 148 	 E =  0.3778369146285486
18 -0.250772 -0.501544 -0.870795
18 0.000256 0.000513 1.833514
18 0.350516 0.701031 -0.962719
3
Step: 149 	 E =  0.37783691435915545
18 -0.252426 -0.504853 -0.876583
18 0.000257 0.000514 1.843878
18 0.352169 0.704338 -0.967295
3
Step: 150 	 E =  0.377836914102258
18 -0.254081 -0.508161 -0.88237
18 0.000258 0.000516 1.854241
18 0.353823 0.707646 -0.971871
3
Step: 151 	 E =  0.37783691385722
18 -0.255735 -0.51147 -0.888158
18 0.000259 0.000517 1.864605
18 0.355476 0.710953 -0.976447
3
Step: 152 	 E =  0.37783691362344024
18 -0.257389 -0.514779 -0.893945
18 0.000259 0.000519 1.874968
18 0.35713 0.71426 -0.981023
3
Step: 153 	 E =  0.37783691340035036
18 -0.259044 -0.518087 -0.899733
18 0.00026 0.00052 1.885332
18 0.358783 0.717567 -0.985599
3
Step: 154 	 E =  0.3778369131874137
18 -0.260698 -0.521396 -0.90552
18 0.000261 0.000522 1.895695
18 0.360437 0.720874 -0.990175
3
Step: 155 	 E =  0.37783691298412264
18 -0.262352 -0.524704 -0.911308
18 0.000262 0.000523 1.906059
18 0.36209 0.724181 -0.994751
3
Step: 156 	 E =  0.3778369127899972
18 -0.264006 -0.528012 -0.917096
18 0.000262 0.000525 1.916423
18 0.363744 0.727487 -0.999327
3
Step: 157 	 E =  0.37783691260458346
18 -0.26566 -0.531321 -0.922883
18 0.000263 0.000526 1.926786
18 0.365397 0.730794 -1.003903
3
Step: 158 	 E =  0.3778369124274517
18 -0.267315 -0.534629 -0.928671
18 0.000264 0.000528 1.93715
18 0.367051 0.734101 -1.008479
3
Step: 159 	 E =  0.3778369122581956
18 -0.268969 -0.537937 -0.934458
18 0.000265 0.00053 1.947513
18 0.368704 0.737408 -1.013055
3
Step: 160 	 E =  0.3778369120964304
18 -0.270623 -0.541246 -0.940246
18 0.000266 0.000531 1.957877
18 0.370357 0.740715 -1.017631
3
Step: 161 	 E =  0.3778369119417916
18 -0.272277 -0.544554 -0.946033
18 0.000266 0.000533 1.96824
18 0.372011 0.744021 -1.022207
3
Step: 162 	 E =  0.37783691179393425
18 -0.273931 -0.547862 -0.951821
18 0.000267 0.000534 1.978604
18 0.373664 0.747328 -1.026783
3
Step: 163 	 E =  0.3778369116525316
18 -0.275585 -0.55117 -0.957608
18 0.000268 0.000536 1.988967
18 0.375317 0.750634 -1.031359
3
Step: 164 	 E =  0.37783691151727367
18 -0.277239 -0.554478 -0.963396
18 0.000269 0.000537 1.999331
18 0.37697 0.753941 -1.035935
3
Step: 165 	 E =  0.37783691138786724
18 -0.278893 -0.557786 -0.969183
18 0.000269 0.000539 2.009694
18 0.378624 0.757247 -1.040511
3
Step: 166 	 E =  0.3778369112640337
18 -0.280547 -0.561094 -0.974971
18 0.00027 0.00054 2.020058
18 0.380277 0.760554 -1.045087
3
Step: 167 	 E =  0.37783691114550944
18 -0.282201 -0.564402 -0.980759
18 0.000271 0.000542 2.030421
18 0.38193 0.76386 -1.049663
3
Step: 168 	 E =  0.3778369110320441
18 -0.283855 -0.56771 -0.986546
18 0.000272 0.000543 2.040785
18 0.383583 0.767167 -1.054239
3
Step: 169 	 E =  0.3778369109234002
18 -0.285509 -0.571018 -0.992334
18 0.000272 0.000545 2.051149
18 0.385237 0.770473 -1.058815
3
Step: 170 	 E =  0.3778369108193524
18 -0.287163 -0.574326 -0.998121
18 0.000273 0.000546 2.061512
18 0.38689 0.77378 -1.063391
3
Step: 171 	 E =  0.377836910719687
18 -0.288817 -0.577633 -1.003909
18 0.000274 0.000548 2.071876
18 0.388543 0.777086 -1.067967
3
Step: 172 	 E =  0.377836910624201
18 -0.290471 -0.580941 -1.009696
18 0.000275 0.000549 2.082239
18 0.390196 0.780392 -1.072543
3
Step: 173 	 E =  0.3778369105327015
18 -0.292125 -0.584249 -1.015484
18 0.000275 0.000551 2.092603
18 0.391849 0.783698 -1.077119
3
Step: 174 	 E =  0.3778369104450055
18 -0.293778 -0.587557 -1.021272
18 0.000276 0.000552 2.102966
18 0.393502 0.787005 -1.081695
3
Step: 175 	 E =  0.3778369103609392
18 -0.295432 -0.590865 -1.027059
18 0.000277 0.000554 2.11333
18 0.395155 0.790311 -1.086271
3
Step: 176 	 E =  0.3778369102803371
18 -0.297086 -0.594172 -1.032847
18 0.000278 0.000555 2.123693
18 0.396809 0.793617 -1.090847
3
Step: 177 	 E =  0.3778369102030423
18 -0.29874 -0.59748 -1.038634
18 0.000278 0.000557 2.134057
18 0.398462 0.796923 -1.095423
3
Step: 178 	 E =  0.37783691012890547
18 -0.300394 -0.600788 -1.044422
18 0.000279 0.000558 2.14442
18 0.400115 0.800229 -1.099999
3
Step: 179 	 E =  0.3778369100577846
18 -0.302048 -0.604095 -1.050209
18 0.00028 0.00056 2.154784
18 0.401768 0.803536 -1.104575
3
Step: 180 	 E =  0.37783690998954467
18 -0.303701 -0.607403 -1.055997
18 0.000281 0.000561 2.165147
18 0.403421 0.806842 -1.10915
3
Step: 181 	 E =  0.37783690992405733
18 -0.305355 -0.61071 -1.061785
18 0.000281 0.000563 2.175511
18 0.405074 0.810148 -1.113726
3
Step: 182 	 E =  0.37783690986120033
18 -0.307009 -0.614018 -1.067572
18 0.000282 0.000564 2.185874
18 0.406727 0.813454 -1.118302
3
Step: 183 	 E =  0.37783690980085743
18 -0.308663 -0.617326 -1.07336
18 0.000283 0.000566 2.196238
18 0.40838 0.81676 -1.122878
3
Step: 184 	 E =  0.3778369097429179
18 -0.310317 -0.620633 -1.079147
18 0.000284 0.000567 2.206602
18 0.410033 0.820066 -1.127454
3
Step: 185 	 E =  0.37783690968727635
18 -0.31197 -0.623941 -1.084935
18 0.000284 0.000569 2.216965
18 0.411686 0.823372 -1.13203
3
Step: 186 	 E =  0.37783690963383265
18 -0.313624 -0.627248 -1.090722
18 0.000285 0.00057 2.227329
18 0.413339 0.826678 -1.136606
3
Step: 187 	 E =  0.37783690958249094
18 -0.315278 -0.630556 -1.09651
18 0.000286 0.000572 2.237692
18 0.414992 0.829984 -1.141182
3
Step: 188 	 E =  0.3778369095331604
18 -0.316932 -0.633863 -1.102298
18 0.000287 0.000573 2.248056
18 0.416645 0.83329 -1.145758
3
Step: 189 	 E =  0.3778369094857543
18 -0.318585 -0.637171 -1.108085
18 0.000287 0.000575 2.258419
18 0.418298 0.836596 -1.150334
3
Step: 190 	 E =  0.3778369094401899
18 -0.320239 -0.640478 -1.113873
18 0.000288 0.000576 2.268783
18 0.419951 0.839902 -1.15491
3
Step: 191 	 E =  0.37783690939638837
18 -0.321893 -0.643786 -1.11966
18 0.000289 0.000578 2.279146
18 0.421604 0.843208 -1.159486
3
Step: 192 	 E =  0.3778369093542746
18 -0.323546 -0.647093 -1.125448
18 0.00029 0.000579 2.28951
18 0.423257 0.846514 -1.164062
3
Step: 193 	 E =  0.37783690931377717
18 -0.3252 -0.6504 -1.131235
18 0.00029 0.000581 2.299873
18 0.42491 0.84982 -1.168638
3
Step: 194 	 E =  0.37783690927482755
18 -0.326854 -0.653708 -1.137023
18 0.000291 0.000582 2.310237
18 0.426563 0.853125 -1.173214
3
Step: 195 	 E =  0.37783690923736074
18 -0.328508 -0.657015 -1.142811
18 0.000292 0.000584 2.3206
18 0.428216 0.856431 -1.17779
3
Step: 196 	 E =  0.37783690920131446
18 -0.330161 -0.660322 -1.148598
18 0.000293 0.000585 2.330964
18 0.429869 0.859737 -1.182366
3
Step: 197 	 E =  0.3778369091666294
18 -0.331815 -0.66363 -1.154386
18 0.000293 0.000587 2.341327
18 0.431522 0.863043 -1.186942
3
Step: 198 	 E =  0.37783690913324897
18 -0.333469 -0.666937 -1.160173
18 0.000294 0.000588 2.351691
18 0.433174 0.866349 -1.191518
3
Step: 199 	 E =  0.3778369091011191
18 -0.335122 -0.670245 -1.165961
18 0.000295 0.00059 2.362054
18 0.434827 0.869655 -1.196094
3
Step: 200 	 E =  0.3778369090701881
18 -0.336776 -0.673552 -1.171748
18 0.000296 0.000591 2.372418
18 0.43648 0.87296 -1.20067
3
Step: 201 	 E =  0.37783690904040684
18 -0.33843 -0.676859 -1.177536
18 0.000296 0.000593 2.382782
18 0.438133 0.876266 -1.205245
3
Step: 202 	 E =  0.3778369090117282
18 -0.340083 -0.680166 -1.183324
18 0.000297 0.000594 2.393145
18 0.439786 0.879572 -1.209821
3
Step: 203 	 E =  0.37783690898410704
18 -0.341737 -0.683474 -1.189111
18 0.000298 0.000596 2.403509
18 0.441439 0.882878 -1.214397
3
Step: 204 	 E =  0.3778369089575005
18 -0.34339 -0.686781 -1.194899
18 0.000299 0.000597 2.413872
18 0.443092 0.886184 -1.218973
3
Step: 205 	 E =  0.37783690893186755
18 -0.345044 -0.690088 -1.200686
18 0.000299 0.000599 2.424236
18 0.444745 0.889489 -1.223549
3
Step: 206 	 E =  0.377836908907169
18 -0.346698 -0.693396 -1.206474
18 0.0003 0.0006 2.434599
18 0.446398 0.892795 -1.228125
3
Step: 207 	 E =  0.3778369088833671
18 -0.348351 -0.696703 -1.212261
18 0.000301 0.000602 2.444963
18 0.44805 0.896101 -1.232701
3
Step: 208 	 E =  0.37783690886042604
18 -0.350005 -0.70001 -1.218049
18 0.000302 0.000603 2.455326
18 0.449703 0.899407 -1.237277
3
Step: 209 	 E =  0.3778369088383116
18 -0.351659 -0.703317 -1.223837
18 0.000302 0.000605 2.46569
18 0.451356 0.902712 -1.241853
3
Step: 210 	 E =  0.3778369088169909
18 -0.353312 -0.706624 -1.229624
18 0.000303 0.000606 2.476053
18 0.453009 0.906018 -1.246429
3
Step: 211 	 E =  0.3778369087964325
18 -0.354966 -0.709932 -1.235412
18 0.000304 0.000608 2.486417
18 0.454662 0.909324 -1.251005
3
Step: 212 	 E =  0.3778369087766065
18 -0.356619 -0.713239 -1.241199
18 0.000305 0.000609 2.49678
18 0.456315 0.912629 -1.255581
3
Step: 213 	 E =  0.37783690875748394
18 -0.358273 -0.716546 -1.246987
18 0.000305 0.000611 2.507144
18 0.457968 0.915935 -1.260157
3
Step: 214 	 E =  0.37783690873903736
18 -0.359927 -0.719853 -1.252775
18 0.000306 0.000612 2.517507
18 0.45962 0.919241 -1.264733
3
Step: 215 	 E =  0.3778369087212405
18 -0.36158 -0.72316 -1.258562
18 0.000307 0.000614 2.527871
18 0.461273 0.922547 -1.269309
3
Step: 216 	 E =  0.3778369087040681
18 -0.363234 -0.726468 -1.26435
18 0.000308 0.000615 2.538234
18 0.462926 0.925852 -1.273885
3
Step: 217 	 E =  0.3778369086874959
18 -0.364887 -0.729775 -1.270137
18 0.000308 0.000617 2.548598
18 0.464579 0.929158 -1.278461
3
Step: 218 	 E =  0.377836908671501
18 -0.366541 -0.733082 -1.275925
18 0.000309 0.000619 2.558961
18 0.466232 0.932464 -1.283037
3
Step: 219 	 E =  0.3778369086560609
18 -0.368195 -0.736389 -1.281712
18 0.00031 0.00062 2.569325
18 0.467885 0.935769 -1.287613
3
Step: 220 	 E =  0.3778369086411547
18 -0.369848 -0.739696 -1.2875
18 0.000311 0.000622 2.579689
18 0.469537 0.939075 -1.292189
3
Step: 221 	 E =  0.37783690862676184
18 -0.371502 -0.743003 -1.293288
18 0.000312 0.000623 2.590052
18 0.47119 0.94238 -1.296764
3
Step: 222 	 E =  0.37783690861286284
18 -0.373155 -0.746311 -1.299075
18 0.000312 0.000625 2.600416
18 0.472843 0.945686 -1.30134
3
Step: 223 	 E =  0.37783690859943914
18 -0.374809 -0.749618 -1.304863
18 0.000313 0.000626 2.610779
18 0.474496 0.948992 -1.305916
3
Step: 224 	 E =  0.3778369085864726
18 -0.376462 -0.752925 -1.31065
18 0.000314 0.000628 2.621143
18 0.476149 0.952297 -1.310492
3
Step: 225 	 E =  0.37783690857394625
18 -0.378116 -0.756232 -1.316438
18 0.000315 0.000629 2.631506
18 0.477801 0.955603 -1.315068
3
Step: 226 	 E =  0.3778369085618436
18 -0.37977 -0.759539 -1.322225
18 0.000315 0.000631 2.64187
18 0.479454 0.958909 -1.319644
3
Step: 227 	 E =  0.37783690855014873
18 -0.381423 -0.762846 -1.328013
18 0.000316 0.000632 2.652233
18 0.481107 0.962214 -1.32422
3
Step: 228 	 E =  0.3778369085388465
18 -0.383077 -0.766153 -1.333801
18 0.000317 0.000634 2.662597
18 0.48276 0.96552 -1.328796
3
Step: 229 	 E =  0.3778369085279224
18 -0.38473 -0.76946 -1.339588
18 0.000318 0.000635 2.67296