3
Step: 0 	 E =  0.39685690695535625
18 0.0 0.0 0.0
18 0.0 0.0 3.0
18 1.0 2.0 -3.0
3
Step: 1 	 E =  0.39685311414245517
18 -0.0 -0.0 -0.000361
18 0.0 0.0 3.000361
18 1.0 2.0 -3.0
3
Step: 2 	 E =  0.39684197985671105
18 -1e-06 -1e-06 -0.001442
18 0.0 1e-06 3.001441
18 1.0 2.0 -3.0
3
Step: 3 	 E =  0.3968242105403117
18 -1e-06 -3e-06 -0.003234
18 1e-06 2e-06 3.003233
18 1.000001 2.000001 -2.999999
3
Step: 4 	 E =  0.3968009010438721
18 -3e-06 -5e-06 -0.005726
18 2e-06 3e-06 3.005724
18 1.000001 2.000002 -2.999999
3
Step: 5 	 E =  0.39677342445546915
18 -4e-06 -8e-06 -0.008898
18 2e-06 5e-06 3.008897
18 1.000002 2.000004 -2.999998
3
Step: 6 	 E =  0.39674330209258424
18 -6e-06 -1.2e-05 -0.012731
18 3e-06 7e-06 3.012729
18 1.000003 2.000006 -2.999998
3
Step: 7 	 E =  0.3967120716004356
18 -9e-06 -1.8e-05 -0.017198
18 5e-06 9e-06 3.017196
18 1.000004 2.000008 -2.999999
3
Step: 8 	 E =  0.39668116924896807
18 -1.2e-05 -2.4e-05 -0.02227
18 6e-06 1.2e-05 3.022271
18 1.000006 2.000012 -3.0
3
Step: 9 	 E =  0.39665183816575245
18 -1.6e-05 -3.2e-05 -0.027919
18 8e-06 1.5e-05 3.027921
18 1.000009 2.000017 -3.000003
3
Step: 10 	 E =  0.39662506866252734
18 -2.1e-05 -4.2e-05 -0.03411
18 9e-06 1.9e-05 3.034117
18 1.000012 2.000023 -3.000007
3
Step: 11 	 E =  0.3966015713175027
18 -2.7e-05 -5.4e-05 -0.040811
18 1.1e-05 2.3e-05 3.040823
18 1.000016 2.000031 -3.000013
3
Step: 12 	 E =  0.3965817790647028
18 -3.4e-05 -6.8e-05 -0.047986
18 1.4e-05 2.7e-05 3.048007
18 1.000021 2.000041 -3.000021
3
Step: 13 	 E =  0.3965658717440528
18 -4.3e-05 -8.5e-05 -0.055603
18 1.6e-05 3.2e-05 3.055636
18 1.000027 2.000054 -3.000032
3
Step: 14 	 E =  0.3965538154405968
18 -5.3e-05 -0.000106 -0.063628
18 1.8e-05 3.7e-05 3.063675
18 1.000034 2.000069 -3.000047
3
Step: 15 	 E =  0.39654540920447146
18 -6.5e-05 -0.000129 -0.072026
18 2.1e-05 4.2e-05 3.072092
18 1.000043 2.000087 -3.000066
3
Step: 16 	 E =  0.3965403329371385
18 -7.8e-05 -0.000157 -0.080767
18 2.4e-05 4.8e-05 3.080856
18 1.000054 2.000109 -3.000089
3
Step: 17 	 E =  0.39653819187677825
18 -9.4e-05 -0.000189 -0.089819
18 2.7e-05 5.4e-05 3.089937
18 1.000067 2.000135 -3.000118
3
Step: 18 	 E =  0.39653855482275735
18 -0.000113 -0.000226 -0.099153
18 3e-05 6.1e-05 3.099307
18 1.000082 2.000165 -3.000153
3
Step: 19 	 E =  0.3965409847407565
18 -0.000134 -0.000268 -0.108743
18 3.4e-05 6.8e-05 3.108938
18 1.0001 2.000201 -3.000195
3
Step: 20 	 E =  0.3965450615515573
18 -0.000158 -0.000317 -0.11856
18 3.7e-05 7.5e-05 3.118805
18 1.000121 2.000242 -3.000245
3
Step: 21 	 E =  0.3965503976954928
18 -0.000186 -0.000372 -0.128583
18 4.1e-05 8.3e-05 3.128886
18 1.000145 2.00029 -3.000303
3
Step: 22 	 E =  0.3965566475171085
18 -0.000217 -0.000435 -0.138786
18 4.5e-05 9.1e-05 3.139158
18 1.000172 2.000344 -3.000371
3
Step: 23 	 E =  0.39656351170031745
18 -0.000253 -0.000506 -0.149151
18 4.9e-05 9.9e-05 3.149601
18 1.000203 2.000407 -3.00045
3
Step: 24 	 E =  0.3965707379821074
18 -0.000293 -0.000585 -0.159656
18 5.4e-05 0.000107 3.160197
18 1.000239 2.000478 -3.00054
3
Step: 25 	 E =  0.39657811925453984
18 -0.000337 -0.000675 -0.170285
18 5.8e-05 0.000116 3.170928
18 1.000279 2.000558 -3.000643
3
Step: 26 	 E =  0.39658548998788196
18 -0.000387 -0.000775 -0.18102
18 6.3e-05 0.000126 3.18178
18 1.000324 2.000649 -3.00076
3
Step: 27 	 E =  0.3965927217132596
18 -0.000443 -0.000886 -0.191846
18 6.8e-05 0.000136 3.192738
18 1.000375 2.00075 -3.000892
3
Step: 28 	 E =  0.3965997181175583
18 -0.000505 -0.001009 -0.20275
18 7.3e-05 0.000146 3.203789
18 1.000432 2.000864 -3.00104
3
Step: 29 	 E =  0.396606410140802
18 -0.000573 -0.001146 -0.213718
18 7.8e-05 0.000156 3.214923
18 1.000495 2.00099 -3.001205
3
Step: 30 	 E =  0.396612751332893
18 -0.000649 -0.001297 -0.224738
18 8.3e-05 0.000167 3.226128
18 1.000565 2.001131 -3.00139
3
Step: 31 	 E =  0.3966187136228578
18 -0.000732 -0.001464 -0.2358
18 8.9e-05 0.000178 3.237395
18 1.000643 2.001287 -3.001595
3
Step: 32 	 E =  0.3966242835769016
18 -0.000823 -0.001647 -0.246893
18 9.4e-05 0.000189 3.248715
18 1.000729 2.001458 -3.001822
3
Step: 33 	 E =  0.3966294591674881
18 -0.000924 -0.001848 -0.258009
18 0.0001 0.0002 3.260081
18 1.000824 2.001647 -3.002072
3
Step: 34 	 E =  0.39663424703974626
18 -0.001034 -0.002067 -0.269139
18 0.000106 0.000212 3.271486
18 1.000927 2.001855 -3.002347
3
Step: 35 	 E =  0.39663866023948213
18 -0.001153 -0.002307 -0.280276
18 0.000112 0.000225 3.282924
18 1.001041 2.002082 -3.002648
3
Step: 36 	 E =  0.3966427163551902
18 -0.001284 -0.002567 -0.291412
18 0.000119 0.000237 3.294389
18 1.001165 2.00233 -3.002978
3
Step: 37 	 E =  0.39664643602168004
18 -0.001426 -0.002851 -0.30254
18 0.000125 0.00025 3.305877
18 1.001301 2.002601 -3.003337
3
Step: 38 	 E =  0.3966498417328722
18 -0.001579 -0.003159 -0.313654
18 0.000131 0.000263 3.317383
18 1.001448 2.002896 -3.003728
3
Step: 39 	 E =  0.3966529569141973
18 -0.001746 -0.003492 -0.324749
18 0.000138 0.000276 3.328902
18 1.001608 2.003216 -3.004153
3
Step: 40 	 E =  0.39665580520956045
18 -0.001926 -0.003852 -0.33582
18 0.000145 0.00029 3.340432
18 1.001781 2.003562 -3.004613
3
Step: 41 	 E =  0.39665840994313495
18 -0.002121 -0.004241 -0.34686
18 0.000152 0.000304 3.35197
18 1.001969 2.003937 -3.005109
3
Step: 42 	 E =  0.3966607937217138
18 -0.00233 -0.00466 -0.357867
18 0.000159 0.000318 3.363512
18 1.002171 2.004342 -3.005645
3
Step: 43 	 E =  0.39666297814862106
18 -0.002555 -0.005111 -0.368835
18 0.000166 0.000332 3.375057
18 1.002389 2.004778 -3.006222
3
Step: 44 	 E =  0.3966649836250459
18 -0.002797 -0.005594 -0.37976
18 0.000174 0.000347 3.386601
18 1.002624 2.005247 -3.006841
3
Step: 45 	 E =  0.3966668292190086
18 -0.003057 -0.006113 -0.390638
18 0.000181 0.000362 3.398144
18 1.002876 2.005751 -3.007506
3
Step: 46 	 E =  0.39666853258596324
18 -0.003334 -0.006669 -0.401466
18 0.000189 0.000377 3.409684
18 1.003146 2.006292 -3.008218
3
Step: 47 	 E =  0.39667010992829904
18 -0.003631 -0.007263 -0.41224
18 0.000196 0.000392 3.421218
18 1.003435 2.00687 -3.008978
3
Step: 48 	 E =  0.3966715759837605
18 -0.003949 -0.007897 -0.422957
18 0.000204 0.000408 3.432747
18 1.003745 2.007489 -3.00979
3
Step: 49 	 E =  0.3966729440350997
18 -0.004287 -0.008573 -0.433614
18 0.000212 0.000424 3.444268
18 1.004075 2.008149 -3.010655
3
Step: 50 	 E =  0.396674225935176
18 -0.004647 -0.009293 -0.444207
18 0.00022 0.00044 3.455782
18 1.004427 2.008853 -3.011575
3
Step: 51 	 E =  0.39667543214326795
18 -0.005029 -0.010059 -0.454734
18 0.000228 0.000456 3.467286
18 1.004801 2.009603 -3.012552
3
Step: 52 	 E =  0.3966765717696049
18 -0.005436 -0.010872 -0.465191
18 0.000236 0.000472 3.478781
18 1.0052 2.010399 -3.013589
3
Step: 53 	 E =  0.3966776526261188
18 -0.005867 -0.011734 -0.475577
18 0.000245 0.000489 3.490265
18 1.005623 2.011245 -3.014688
3
Step: 54 	 E =  0.39667868128218564
18 -0.006324 -0.012648 -0.485889
18 0.000253 0.000506 3.501738
18 1.006071 2.012142 -3.015849
3
Step: 55 	 E =  0.39667966312469344
18 -0.006807 -0.013614 -0.496124
18 0.000261 0.000523 3.513201
18 1.006546 2.013091 -3.017077
3
Step: 56 	 E =  0.39668060242221015
18 -0.007318 -0.014635 -0.50628
18 0.00027 0.00054 3.524651
18 1.007048 2.014095 -3.018371
3
Step: 57 	 E =  0.39668150239327543
18 -0.007856 -0.015713 -0.516355
18 0.000279 0.000557 3.53609
18 1.007578 2.015156 -3.019736
3
Step: 58 	 E =  0.3966823652790115
18 -0.008424 -0.016849 -0.526346
18 0.000287 0.000575 3.547517
18 1.008137 2.016274 -3.021171
3
Step: 59 	 E =  0.39668319242029093
18 -0.009023 -0.018045 -0.536252
18 0.000296 0.000592 3.558932
18 1.008726 2.017453 -3.02268
3
Step: 60 	 E =  0.39668398433965935
18 -0.009652 -0.019303 -0.54607
18 0.000305 0.00061 3.570334
18 1.009346 2.018693 -3.024263
3
Step: 61 	 E =  0.396684740828097
18 -0.010312 -0.020624 -0.5558
18 0.000314 0.000628 3.581724
18 1.009998 2.019996 -3.025924
3
Step: 62 	 E =  0.39668546103652996
18 -0.011006 -0.022011 -0.565439
18 0.000323 0.000646 3.593101
18 1.010682 2.021365 -3.027662
3
Step: 63 	 E =  0.39668614357177845
18 -0.011732 -0.023464 -0.574986
18 0.000332 0.000664 3.604466
18 1.0114 2.0228 -3.02948
3
Step: 64 	 E =  0.3966867865963839
18 -0.012493 -0.024986 -0.584439
18 0.000341 0.000683 3.615818
18 1.012151 2.024303 -3.03138
3
Step: 65 	 E =  0.39668738793148545
18 -0.013288 -0.026577 -0.593797
18 0.000351 0.000701 3.627158
18 1.012938 2.025876 -3.033362
3
Step: 66 	 E =  0.39668794516165956
18 -0.014119 -0.028239 -0.603058
18 0.00036 0.00072 3.638486
18 1.013759 2.027519 -3.035428
3
Step: 67 	 E =  0.3966884557403767
18 -0.014986 -0.029973 -0.612223
18 0.000369 0.000738 3.649801
18 1.014617 2.029235 -3.037578
3
Step: 68 	 E =  0.39668891709453546
18 -0.01589 -0.03178 -0.621289
18 0.000378 0.000757 3.661104
18 1.015512 2.031023 -3.039815
3
Step: 69 	 E =  0.39668932672633656
18 -0.016831 -0.033662 -0.630257
18 0.000388 0.000776 3.672396
18 1.016443 2.032887 -3.042139
3
Step: 70 	 E =  0.3966896823106759
18 -0.01781 -0.03562 -0.639125
18 0.000397 0.000795 3.683675
18 1.017413 2.034825 -3.04455
3
Step: 71 	 E =  0.39668998178617554
18 -0.018827 -0.037654 -0.647892
18 0.000407 0.000814 3.694942
18 1.01842 2.03684 -3.04705
3
Step: 72 	 E =  0.3966902234380129
18 -0.019882 -0.039765 -0.65656
18 0.000416 0.000833 3.706198
18 1.019466 2.038932 -3.049638
3
Step: 73 	 E =  0.3966904059708055
18 -0.020977 -0.041954 -0.665126
18 0.000426 0.000852 3.717442
18 1.020551 2.041102 -3.052316
3
Step: 74 	 E =  0.3966905285700062
18 -0.022111 -0.044221 -0.673592
18 0.000435 0.000871 3.728675
18 1.021675 2.04335 -3.055082
3
Step: 75 	 E =  0.3966905909505082
18 -0.023284 -0.046567 -0.681957
18 0.000445 0.00089 3.739896
18 1.022839 2.045677 -3.057939
3
Step: 76 	 E =  0.3966905933914754
18 -0.024496 -0.048992 -0.690222
18 0.000455 0.000909 3.751107
18 1.024041 2.048083 -3.060884
3
Step: 77 	 E =  0.3966905367567757
18 -0.025748 -0.051496 -0.698387
18 0.000464 0.000929 3.762306
18 1.025284 2.050568 -3.063919
3
Step: 78 	 E =  0.39669042250079795
18 -0.02704 -0.05408 -0.706452
18 0.000474 0.000948 3.773495
18 1.026566 2.053132 -3.067043
3
Step: 79 	 E =  0.3966902526598225
18 -0.028371 -0.056743 -0.714419
18 0.000484 0.000967 3.784673
18 1.027888 2.055775 -3.070255
3
Step: 80 	 E =  0.3966900298295539
18 -0.029742 -0.059484 -0.722287
18 0.000493 0.000987 3.795841
18 1.029249 2.058498 -3.073555
3
Step: 81 	 E =  0.3966897571297803
18 -0.031152 -0.062305 -0.730058
18 0.000503 0.001006 3.806999
18 1.030649 2.061299 -3.076941
3
Step: 82 	 E =  0.39668943815748764
18 -0.032602 -0.065204 -0.737733
18 0.000513 0.001025 3.818147
18 1.032089 2.064178 -3.080414
3
Step: 83 	 E =  0.39668907693005434
18 -0.03409 -0.06818 -0.745312
18 0.000522 0.001045 3.829285
18 1.033568 2.067135 -3.083972
3
Step: 84 	 E =  0.3966886778203721
18 -0.035617 -0.071234 -0.752799
18 0.000532 0.001064 3.840413
18 1.035085 2.070169 -3.087615
3
Step: 85 	 E =  0.3966882454859131
18 -0.037182 -0.074363 -0.760192
18 0.000542 0.001084 3.851532
18 1.03664 2.07328 -3.09134
3
Step: 86 	 E =  0.3966877847938338
18 -0.038784 -0.077568 -0.767495
18 0.000552 0.001103 3.862641
18 1.038233 2.076465 -3.095146
3
Step: 87 	 E =  0.396687300744222
18 -0.040424 -0.080848 -0.774709
18 0.000561 0.001122 3.873742
18 1.039863 2.079725 -3.099033
3
Step: 88 	 E =  0.3966867983935238
18 -0.0421 -0.0842 -0.781835
18 0.000571 0.001142 3.884833
18 1.041529 2.083059 -3.102998
3
Step: 89 	 E =  0.3966862827800624
18 -0.043813 -0.087625 -0.788876
18 0.000581 0.001161 3.895915
18 1.043232 2.086464 -3.10704
3
Step: 90 	 E =  0.3966857588533607
18 -0.04556 -0.091121 -0.795832
18 0.00059 0.00118 3.906989
18 1.04497 2.08994 -3.111157
3
Step: 91 	 E =  0.3966852314087626
18 -0.047343 -0.094686 -0.802707
18 0.0006 0.0012 3.918054
18 1.046743 2.093486 -3.115348
3
Step: 92 	 E =  0.3966847050285706
18 -0.049159 -0.098319 -0.809501
18 0.00061 0.001219 3.929111
18 1.04855 2.0971 -3.11961
3
Step: 93 	 E =  0.39668418403064476
18 -0.051009 -0.102019 -0.816217
18 0.000619 0.001238 3.940159
18 1.05039 2.10078 -3.123942
3
Step: 94 	 E =  0.39668367242510927
18 -0.052892 -0.105783 -0.822858
18 0.000629 0.001257 3.9512
18 1.052263 2.104526 -3.128342
3
Step: 95 	 E =  0.3966831738795342
18 -0.054806 -0.109611 -0.829425
18 0.000638 0.001277 3.962233
18 1.054167 2.108335 -3.132808
3
Step: 96 	 E =  0.39668269169269416
18 -0.056751 -0.113501 -0.83592
18 0.000648 0.001296 3.973258
18 1.056103 2.112206 -3.137338
3
Step: 97 	 E =  0.39668222877675424
18 -0.058726 -0.117451 -0.842345
18 0.000657 0.001315 3.984275
18 1.058068 2.116137 -3.14193
3
Step: 98 	 E =  0.39668178764752915
18 -0.06073 -0.121459 -0.848703
18 0.000667 0.001334 3.995285
18 1.060063 2.120126 -3.146581
3
Step: 99 	 E =  0.39668137042227364
18 -0.062762 -0.125524 -0.854997
18 0.000676 0.001353 4.006287
18 1.062086 2.124172 -3.151291
3
Step: 100 	 E =  0.3966809788243368
18 -0.064822 -0.129644 -0.861227
18 0.000686 0.001371 4.017282
18 1.064136 2.128272 -3.156056
3
Step: 101 	 E =  0.39668061419389117
18 -0.066908 -0.133816 -0.867396
18 0.000695 0.00139 4.028271
18 1.066213 2.132426 -3.160875
3
Step: 102 	 E =  0.39668027750389406
18 -0.06902 -0.13804 -0.873507
18 0.000704 0.001409 4.039252
18 1.068316 2.136631 -3.165745
3
Step: 103 	 E =  0.39667996938040434
18 -0.071157 -0.142313 -0.879562
18 0.000714 0.001427 4.050227
18 1.070443 2.140886 -3.170665
3
Step: 104 	 E =  0.39667969012636906
18 -0.073317 -0.146634 -0.885562
18 0.000723 0.001446 4.061195
18 1.072594 2.145188 -3.175633
3
Step: 105 	 E =  0.3966794397480239
18 -0.0755 -0.151001 -0.89151
18 0.000732 0.001464 4.072156
18 1.074768 2.149536 -3.180646
3
Step: 106 	 E =  0.3966792179830954
18 -0.077705 -0.155411 -0.897409
18 0.000741 0.001483 4.083111
18 1.076964 2.153928 -3.185702
3
Step: 107 	 E =  0.39667902433005364
18 -0.079932 -0.159863 -0.903259
18 0.000751 0.001501 4.09406
18 1.079181 2.158362 -3.190801
3
Step: 108 	 E =  0.3966788580777392
18 -0.082178 -0.164356 -0.909064
18 0.00076 0.001519 4.105002
18 1.081419 2.162837 -3.195939
3
Step: 109 	 E =  0.39667871833476825
18 -0.084444 -0.168888 -0.914824
18 0.000769 0.001537 4.115939
18 1.083675 2.167351 -3.201114
3
Step: 110 	 E =  0.39667860405820976
18 -0.086728 -0.173456 -0.920543
18 0.000778 0.001555 4.126869
18 1.08595 2.171901 -3.206326
3
Step: 111 	 E =  0.3966785140811106
18 -0.08903 -0.17806 -0.926222
18 0.000787 0.001573 4.137794
18 1.088243 2.176487 -3.211572
3
Step: 112 	 E =  0.3966784471385314
18 -0.091348 -0.182697 -0.931863
18 0.000796 0.001591 4.148713
18 1.090553 2.181106 -3.21685
3
Step: 113 	 E =  0.3966784018918369
18 -0.093683 -0.187366 -0.937467
18 0.000804 0.001609 4.159626
18 1.092879 2.185757 -3.222159
3
Step: 114 	 E =  0.39667837695105435
18 -0.096033 -0.192065 -0.943037
18 0.000813 0.001626 4.170534
18 1.095219 2.190439 -3.227497
3
Step: 115 	 E =  0.3966783708951873
18 -0.098396 -0.196793 -0.948574
18 0.000822 0.001644 4.181436
18 1.097574 2.195149 -3.232862
3
Step: 116 	 E =  0.3966783822904236
18 -0.100774 -0.201548 -0.95408
18 0.000831 0.001661 4.192334
18 1.099943 2.199886 -3.238253
3
Step: 117 	 E =  0.3966784097062319
18 -0.103164 -0.206328 -0.959557
18 0.000839 0.001679 4.203226
18 1.102325 2.20465 -3.243669
3
Step: 118 	 E =  0.39667845172938343
18 -0.105566 -0.211133 -0.965006
18 0.000848 0.001696 4.214112
18 1.104719 2.209437 -3.249107
3
Step: 119 	 E =  0.3966785069759667
18 -0.10798 -0.21596 -0.970428
18 0.000856 0.001713 4.224994
18 1.107124 2.214247 -3.254566
3
Step: 120 	 E =  0.39667857410149615
18 -0.110404 -0.220809 -0.975826
18 0.000865 0.00173 4.235871
18 1.109539 2.219079 -3.260045
3
Step: 121 	 E =  0.39667865180922923
18 -0.112839 -0.225677 -0.981201
18 0.000873 0.001747 4.246743
18 1.111965 2.223931 -3.265543
3
Step: 122 	 E =  0.39667873885682775
18 -0.115282 -0.230564 -0.986553
18 0.000882 0.001763 4.257611
18 1.114401 2.228801 -3.271058
3
Step: 123 	 E =  0.39667883406150173
18 -0.117734 -0.235469 -0.991884
18 0.00089 0.00178 4.268474
18 1.116845 2.233689 -3.276589
3
Step: 124 	 E =  0.39667893630378426
18 -0.120195 -0.24039 -0.997197
18 0.000898 0.001796 4.279332
18 1.119297 2.238593 -3.282135
3
Step: 125 	 E =  0.39667904453008296
18 -0.122663 -0.245325 -1.002491
18 0.000906 0.001813 4.290186
18 1.121756 2.243513 -3.287695
3
Step: 126 	 E =  0.39667915775415163
18 -0.125137 -0.250275 -1.007768
18 0.000914 0.001829 4.301035
18 1.124223 2.248446 -3.293267
3
Step: 127 	 E =  0.39667927505762146
18 -0.127618 -0.255237 -1.013029
18 0.000923 0.001845 4.31188
18 1.126696 2.253392 -3.298851
3
Step: 128 	 E =  0.3966793955897244
18 -0.130105 -0.26021 -1.018275
18 0.000931 0.001861 4.322721
18 1.129175 2.258349 -3.304445
3
Step: 129 	 E =  0.3966795185663318
18 -0.132597 -0.265195 -1.023508
18 0.000939 0.001877 4.333558
18 1.131659 2.263318 -3.310049
3
Step: 130 	 E =  0.39667964326842253
18 -0.135094 -0.270189 -1.028728
18 0.000946 0.001893 4.34439
18 1.134148 2.268296 -3.315662
3
Step: 131 	 E =  0.396679769040088
18 -0.137596 -0.275191 -1.033937
18 0.000954 0.001908 4.355219
18 1.136641 2.273283 -3.321282
3
Step: 132 	 E =  0.39667989528616443
18 -0.140101 -0.280202 -1.039134
18 0.000962 0.001924 4.366044
18 1.139139 2.278278 -3.326909
3
Step: 133 	 E =  0.39668002146958237
18 -0.142609 -0.285219 -1.044322
18 0.00097 0.001939 4.376864
18 1.14164 2.283279 -3.332542
3
Step: 134 	 E =  0.3966801471085046
18 -0.145121 -0.290242 -1.049501
18 0.000977 0.001955 4.387681
18 1.144144 2.288287 -3.338181
3
Step: 135 	 E =  0.396680271773321
18 -0.147635 -0.29527 -1.054671
18 0.000985 0.00197 4.398495
18 1.14665 2.2933 -3.343824
3
Step: 136 	 E =  0.3966803950835567
18 -0.150151 -0.300303 -1.059834
18 0.000992 0.001985 4.409305
18 1.149159 2.298318 -3.349471
3
Step: 137 	 E =  0.3966805167047413
18 -0.15267 -0.305339 -1.06499
18 0.001 0.002 4.420111
18 1.15167 2.30334 -3.355121
3
Step: 138 	 E =  0.3966806363452838
18 -0.155189 -0.310379 -1.07014
18 0.001007 0.002015 4.430913
18 1.154182 2.308364 -3.360773
3
Step: 139 	 E =  0.3966807537533833
18 -0.15771 -0.31542 -1.075285
18 0.001015 0.002029 4.441713
18 1.156696 2.313391 -3.366428
3
Step: 140 	 E =  0.3966808687140085
18 -0.160232 -0.320464 -1.080425
18 0.001022 0.002044 4.452509
18 1.15921 2.31842 -3.372084
3
Step: 141 	 E =  0.39668098104596505
18 -0.162754 -0.325508 -1.085561
18 0.001029 0.002058 4.463301
18 1.161725 2.32345 -3.37774
3
Step: 142 	 E =  0.39668109059907114
18 -0.165276 -0.330553 -1.090693
18 0.001036 0.002073 4.47409
18 1.16424 2.32848 -3.383397
3
Step: 143 	 E =  0.39668119725145257
18 -0.167799 -0.335597 -1.095822
18 0.001043 0.002087 4.484876
18 1.166755 2.33351 -3.389054
3
Step: 144 	 E =  0.3966813009069705
18 -0.17032 -0.340641 -1.100949
18 0.00105 0.002101 4.495659
18 1.16927 2.33854 -3.394711
3
Step: 145 	 E =  0.3966814014927843
18 -0.172842 -0.345684 -1.106074
18 0.001057 0.002115 4.506439
18 1.171784 2.343569 -3.400366
3
Step: 146 	 E =  0.39668149895705657
18 -0.175362 -0.350724 -1.111197
18 0.001064 0.002129 4.517216
18 1.174298 2.348596 -3.406019
3
Step: 147 	 E =  0.39668159326680064
18 -0.177882 -0.355763 -1.116319
18 0.001071 0.002142 4.52799
18 1.17681 2.353621 -3.411671
3
Step: 148 	 E =  0.3966816844058695
18 -0.1804 -0.360799 -1.12144
18 0.001078 0.002156 4.538761
18 1.179322 2.358643 -3.417321
3
Step: 149 	 E =  0.39668177237308566
18 -0.182916 -0.365832 -1.126561
18 0.001085 0.002169 4.549529
18 1.181831 2.363663 -3.422968
3
Step: 150 	 E =  0.39668185718050764
18 -0.185431 -0.370862 -1.131683
18 0.001091 0.002183 4.560294
18 1.18434 2.368679 -3.428612
3
Step: 151 	 E =  0.39668193885182795
18 -0.187944 -0.375888 -1.136804
18 0.001098 0.002196 4.571057
18 1.186846 2.373692 -3.434252
3
Step: 152 	 E =  0.3966820174209006
18 -0.190455 -0.38091 -1.141927
18 0.001105 0.002209 4.581817
18 1.18935 2.3787 -3.43989
3
Step: 153 	 E =  0.3966820929303884
18 -0.192963 -0.385927 -1.147051
18 0.001111 0.002222 4.592574
18 1.191852 2.383705 -3.445523
3
Step: 154 	 E =  0.3966821654305277
18 -0.19547 -0.390939 -1.152176
18 0.001118 0.002235 4.603328
18 1.194352 2.388704 -3.451153
3
Step: 155 	 E =  0.3966822349780015
18 -0.197973 -0.395946 -1.157303
18 0.001124 0.002248 4.61408
18 1.196849 2.393699 -3.456778
3
Step: 156 	 E =  0.3966823016349164
18 -0.200474 -0.400948 -1.162431
18 0.00113 0.002261 4.62483
18 1.199344 2.398688 -3.462398
3
Step: 157 	 E =  0.3966823654678767
18 -0.202972 -0.405944 -1.167562
18 0.001137 0.002273 4.635577
18 1.201836 2.403671 -3.468014
3
Step: 158 	 E =  0.39668242654714714
18 -0.205467 -0.410934 -1.172696
18 0.001143 0.002286 4.646321
18 1.204324 2.408649 -3.473625
3
Step: 159 	 E =  0.3966824849459021
18 -0.207959 -0.415918 -1.177832
18 0.001149 0.002298 4.657064
18 1.20681 2.41362 -3.479231
3
Step: 160 	 E =  0.3966825407395505
18 -0.210448 -0.420896 -1.182971
18 0.001155 0.00231 4.667803
18 1.209293 2.418586 -3.484832
3
Step: 161 	 E =  0.3966825940051347
18 -0.212933 -0.425867 -1.188114
18 0.001161 0.002322 4.678541
18 1.211772 2.423545 -3.490427
3
Step: 162 	 E =  0.39668264482079424
18 -0.215415 -0.430831 -1.193259
18 0.001167 0.002334 4.689276
18 1.214248 2.428497 -3.496017
3
Step: 163 	 E =  0.3966826932652921
18 -0.217894 -0.435788 -1.198408
18 0.001173 0.002346 4.700009
18 1.216721 2.433442 -3.501601
3
Step: 164 	 E =  0.396682739417596
18 -0.220369 -0.440738 -1.203561
18 0.001179 0.002358 4.71074
18 1.21919 2.43838 -3.507179
3
Step: 165 	 E =  0.3966827833565114
18 -0.22284 -0.44568 -1.208717
18 0.001185 0.00237 4.721469
18 1.221655 2.44331 -3.512752
3
Step: 166 	 E =  0.39668282516036063
18 -0.225307 -0.450615 -1.213877
18 0.001191 0.002381 4.732195
18 1.224117 2.448234 -3.518318
3
Step: 167 	 E =  0.39668286490670546
18 -0.227771 -0.455542 -1.219042
18 0.001196 0.002393 4.74292
18 1.226575 2.45315 -3.523878
3
Step: 168 	 E =  0.39668290267210704
18 -0.230231 -0.460462 -1.22421
18 0.001202 0.002404 4.753642
18 1.229029 2.458058 -3.529432
3
Step: 169 	 E =  0.3966829385319214
18 -0.232687 -0.465373 -1.229383
18 0.001208 0.002415 4.764363
18 1.231479 2.462958 -3.53498
3
Step: 170 	 E =  0.39668297256012597
18 -0.235138 -0.470277 -1.23456
18 0.001213 0.002426 4.775081
18 1.233925 2.46785 -3.540521
3
Step: 171 	 E =  0.3966830048291749
18 -0.237586 -0.475172 -1.239742
18 0.001219 0.002437 4.785798
18 1.236367 2.472735 -3.546056
3
Step: 172 	 E =  0.3966830354098795
18 -0.240029 -0.480059 -1.244928
18 0.001224 0.002448 4.796513
18 1.238805 2.477611 -3.551585
3
Step: 173 	 E =  0.3966830643713104
18 -0.242469 -0.484938 -1.250119
18 0.00123 0.002459 4.807226
18 1.241239 2.482479 -3.557107
3
Step: 174 	 E =  0.3966830917807222
18 -0.244904 -0.489808 -1.255314
18 0.001235 0.00247 4.817937
18 1.243669 2.487338 -3.562622
3
Step: 175 	 E =  0.3966831177034941
18 -0.247335 -0.49467 -1.260515
18 0.00124 0.002481 4.828646
18 1.246095 2.492189 -3.568131
3
Step: 176 	 E =  0.3966831422030873
18 -0.249762 -0.499523 -1.26572
18 0.001246 0.002491 4.839353
18 1.248516 2.497032 -3.573633
3
Step: 177 	 E =  0.3966831653410168
18 -0.252184 -0.504368 -1.27093
18 0.001251 0.002502 4.850059
18 1.250933 2.501866 -3.579129
3
Step: 178 	 E =  0.3966831871768349
18 -0.254602 -0.509204 -1.276146
18 0.001256 0.002512 4.860763
18 1.253346 2.506692 -3.584617
3
Step: 179 	 E =  0.3966832077681262
18 -0.257016 -0.514031 -1.281366
18 0.001261 0.002522 4.871465
18 1.255755 2.511509 -3.590099
3
Step: 180 	 E =  0.39668322717051213
18 -0.259425 -0.51885 -1.286591
18 0.001266 0.002532 4.882166
18 1.258159 2.516317 -3.595575
3
Step: 181 	 E =  0.3966832454376628
18 -0.26183 -0.523659 -1.291822
18 0.001271 0.002542 4.892865
18 1.260559 2.521117 -3.601044
3
Step: 182 	 E =  0.39668326262131703
18 -0.26423 -0.52846 -1.297057
18 0.001276 0.002552 4.903563
18 1.262954 2.525908 -3.606506
3
Step: 183 	 E =  0.3966832787713082
18 -0.266626 -0.533252 -1.302298
18 0.001281 0.002562 4.914259
18 1.265345 2.53069 -3.611961
3
Step: 184 	 E =  0.3966832939355945
18 -0.269018 -0.538035 -1.307544
18 0.001286 0.002572 4.924953
18 1.267732 2.535463 -3.617409
3
Step: 185 	 E =  0.39668330816029457
18 -0.271405 -0.54281 -1.312795
18 0.001291 0.002582 4.935646
18 1.270114 2.540228 -3.622851
3
Step: 186 	 E =  0.39668332148972585
18 -0.273787 -0.547575 -1.318051
18 0.001296 0.002591 4.946337
18 1.272492 2.544983 -3.628286
3
Step: 187 	 E =  0.3966833339664464
18 -0.276166 -0.552331 -1.323313
18 0.0013 0.002601 4.957027
18 1.274865 2.54973 -3.633715
3
Step: 188 	 E =  0.3966833456312995
18 -0.278539 -0.557079 -1.328579
18 0.001305 0.00261 4.967716
18 1.277234 2.554468 -3.639136
3
Step: 189 	 E =  0.3966833565234583
18 -0.280909 -0.561817 -1.333852
18 0.00131 0.00262 4.978403
18 1.279599 2.559197 -3.644552
3
Step: 190 	 E =  0.3966833666804744
18 -0.283273 -0.566547 -1.339129
18 0.001315 0.002629 4.989089
18 1.281959 2.563917 -3.64996
3
Step: 191 	 E =  0.39668337613832516
18 -0.285634 -0.571267 -1.344411
18 0.001319 0.002638 4.999773
18 1.284314 2.568629 -3.655362
3
Step: 192 	 E =  0.39668338493146316
18 -0.287989 -0.575979 -1.349699
18 0.001324 0.002647 5.010456
18 1.286666 2.573331 -3.660757
3
Step: 193 	 E =  0.39668339309286504
18 -0.290341 -0.580681 -1.354992
18 0.001328 0.002656 5.021138
18 1.289013 2.578025 -3.666146
3
Step: 194 	 E =  0.3966834006540811
18 -0.292688 -0.585375 -1.360291
18 0.001333 0.002665 5.031818
18 1.291355 2.58271 -3.671528
3
Step: 195 	 E =  0.3966834076452839
18 -0.29503 -0.59006 -1.365594
18 0.001337 0.002674 5.042497
18 1.293693 2.587386 -3.676903
3
Step: 196 	 E =  0.3966834140953176
18 -0.297368 -0.594736 -1.370903
18 0.001342 0.002683 5.053175
18 1.296027 2.592053 -3.682273
3
Step: 197 	 E =  0.3966834200317456
18 -0.299702 -0.599403 -1.376217
18 0.001346 0.002692 5.063852
18 1.298356 2.596712 -3.687635
3
Step: 198 	 E =  0.3966834254808979
18 -0.302031 -0.604062 -1.381536
18 0.00135 0.0027 5.074528
18 1.300681 2.601361 -3.692992
3
Step: 199 	 E =  0.39668343046791865
18 -0.304356 -0.608711 -1.38686
18 0.001355 0.002709 5.085202
18 1.303001 2.606002 -3.698341
3
Step: 200 	 E =  0.3966834350168103
18 -0.306676 -0.613352 -1.39219
18 0.001359 0.002718 5.095875
18 1.305317 2.610634 -3.703685
3
Step: 201 	 E =  0.39668343915047966
18 -0.308992 -0.617984 -1.397525
18 0.001363 0.002726 5.106547
18 1.307629 2.615258 -3.709022
3
Step: 202 	 E =  0.3966834428907809
18 -0.311304 -0.622607 -1.402864
18 0.001367 0.002734 5.117218
18 1.309936 2.619873 -3.714353
3
Step: 203 	 E =  0.3966834462585581
18 -0.313611 -0.627222 -1.408209
18 0.001371 0.002743 5.127887
18 1.31224 2.624479 -3.719678
3
Step: 204 	 E =  0.3966834492736866
18 -0.315914 -0.631828 -1.413559
18 0.001375 0.002751 5.138556
18 1.314538 2.629077 -3.724997
3
Step: 205 	 E =  0.39668345195511284
18 -0.318212 -0.636425 -1.418914
18 0.001379 0.002759 5.149224
18 1.316833 2.633666 -3.730309
3
Step: 206 	 E =  0.39668345432089364
18 -0.320507 -0.641014 -1.424274
18 0.001383 0.002767 5.15989
18 1.319123 2.638247 -3.735616
3
Step: 207 	 E =  0.3966834563882338
18 -0.322797 -0.645594 -1.429639
18 0.001387 0.002775 5.170556
18 1.321409 2.642819 -3.740916
3
Step: 208 	 E =  0.3966834581735219
18 -0.325083 -0.650165 -1.43501
18 0.001391 0.002783 5.18122
18 1.323691 2.647382 -3.746211
3
Step: 209 	 E =  0.3966834596923662
18 -0.327364 -0.654729 -1.440385
18 0.001395 0.002791 5.191884
18 1.325969 2.651938 -3.751499
3
Step: 210 	 E =  0.3966834609596279
18 -0.329642 -0.659283 -1.445764
18 0.001399 0.002799 5.202546
18 1.328242 2.656485 -3.756781
3
Step: 211 	 E =  0.3966834619894546
18 -0.331915 -0.66383 -1.451149
18 0.001403 0.002806 5.213207
18 1.330512 2.661023 -3.762058
3
Step: 212 	 E =  0.39668346279531114
18 -0.334184 -0.668368 -1.456539
18 0.001407 0.002814 5.223868
18 1.332777 2.665554 -3.767329
3
Step: 213 	 E =  0.3966834633900101
18 -0.336449 -0.672897 -1.461933
18 0.001411 0.002822 5.234528
18 1.335038 2.670076 -3.772594
3
Step: 214 	 E =  0.3966834637857413
18 -0.338709 -0.677419 -1.467333
18 0.001415 0.002829 5.245186
18 1.337295 2.67459 -3.777853
3
Step: 215 	 E =  0.39668346399409915
18 -0.340966 -0.681932 -1.472737
18 0.001418 0.002837 5.255844
18 1.339548 2.679095 -3.783107
3
Step: 216 	 E =  0.39668346402611004
18 -0.343218 -0.686437 -1.478146
18 0.001422 0.002844 5.266501
18 1.341796 2.683593 -3.788355
3
Step: 217 	 E =  0.39668346389225845
18 -0.345467 -0.690934 -1.483559
18 0.001426 0.002851 5.277157
18 1.344041 2.688082 -3.793598
3
Step: 218 	 E =  0.3966834636025107
18 -0.347711 -0.695423 -1.488977
18 0.001429 0.002859 5.287812
18 1.346282 2.692564 -3.798834
3
Step: 219 	 E =  0.3966834631663399
18 -0.349952 -0.699903 -1.4944
18 0.001433 0.002866 5.298466
18 1.348519 2.697038 -3.804066
3
Step: 220 	 E =  0.3966834625927477
18 -0.352188 -0.704376 -1.499828
18 0.001437 0.002873 5.30912
18 1.350752 2.701503 -3.809292
3
Step: 221 	 E =  0.396683461890287
18 -0.354421 -0.708841 -1.50526
18 0.00144 0.00288 5.319772
18 1.352981 2.705961 -3.814512
3
Step: 222 	 E =  0.39668346106708213
18 -0.356649 -0.713298 -1.510696
18 0.001444 0.002887 5.330424
18 1.355206 2.710411 -3.819728
3
Step: 223 	 E =  0.39668346013084915
18 -0.358874 -0.717748 -1.516137
18 0.001447 0.002894 5.341075
18 1.357427 2.714853 -3.824938
3
Step: 224 	 E =  0.39668345908891484
18 -0.361094 -0.722189 -1.521583
18 0.001451 0.002901 5.351725
18 1.359644 2.719288 -3.830142
3
Step: 225 	 E =  0.39668345794823506
18 -0.363311 -0.726623 -1.527033
18 0.001454 0.002908 5.362374
18 1.361857 2.723715 -3.835342
3
Step: 226 	 E =  0.39668345671541244
18 -0.365524 -0.731049 -1.532487
18 0.001457 0.002915 5.373023
18 1.364067 2.728134 -3.840536
3
Step: 227 	 E =  0.3966834553967126
18 -0.367734 -0.735467 -1.537945
18 0.001461 0.002922 5.383671
18 1.366273 2.732545 -3.845726
3
Step: 228 	 E =  0.3966834539980805
18 -0.369939 -0.739878 -1.543408
18 0.001464 0.002928 5.394318
18 1.368475 2.73695 -3.85091
3
Step: 229 	 E =  0.39668345252515563
18 -0.372141 -0.744281 -1.548876
18 0.001468 0.002935 5.404965
18 1.370673 2.741346 -3.856089
3
Step: 230 	 E =  0.39668345098328645
18 -0.374339 -0.748677 -1.554347
18 0.001471 0.002942 5.41561